       N       E                     dE             d eps       ncg     rms          rms(c)
SOL:   1  -0.86628E-01    0.19541E-01   -0.67087E-01   106
DAV:   1    -0.436435523476E+02   -0.43644E+02   -0.86240E-02   672   0.103E+00    0.161E-01
SOL:   2  -0.93826E-01    0.19535E-01   -0.74291E-01    92
DAV:   2    -0.436435151823E+02    0.37165E-04   -0.61514E-03   832   0.325E-01    0.102E-01
SOL:   3  -0.10493E+00    0.19534E-01   -0.85397E-01    94
DAV:   3    -0.436436994359E+02   -0.18425E-03   -0.44040E-03   824   0.232E-01    0.523E-02
SOL:   4  -0.10731E+00    0.19538E-01   -0.87771E-01    88
DAV:   4    -0.436436952538E+02    0.41821E-05   -0.44410E-04   800   0.973E-02    0.374E-02
SOL:   5  -0.11350E+00    0.19547E-01   -0.93953E-01    93
DAV:   5    -0.436435877924E+02    0.10746E-03   -0.51996E-04   752   0.915E-02    0.143E-02
SOL:   6  -0.11531E+00    0.19554E-01   -0.95754E-01    88
DAV:   6    -0.436434920568E+02    0.95736E-04   -0.74701E-05   832   0.369E-02    0.819E-03
SOL:   7  -0.11750E+00    0.19561E-01   -0.97935E-01    89
DAV:   7    -0.436433469859E+02    0.14507E-03   -0.67503E-05   696   0.303E-02    0.342E-03
SOL:   8  -0.11774E+00    0.19563E-01   -0.98178E-01    81
DAV:   8    -0.436433223307E+02    0.24655E-04   -0.54452E-06   816   0.877E-03    0.255E-03
SOL:   9  -0.11778E+00    0.19565E-01   -0.98216E-01    82
DAV:   9    -0.436433081492E+02    0.14182E-04   -0.71955E-06   680   0.103E-02    0.253E-03
SOL:  10  -0.11775E+00    0.19565E-01   -0.98181E-01    74
DAV:  10    -0.436433146629E+02   -0.65138E-05   -0.11889E-06   528   0.603E-03    0.132E-03
SOL:  11  -0.11748E+00    0.19563E-01   -0.97913E-01    77
DAV:  11    -0.436433420621E+02   -0.27399E-04   -0.43354E-06   648   0.734E-03    0.134E-03
SOL:  12  -0.11737E+00    0.19562E-01   -0.97803E-01    73
DAV:  12    -0.436433549055E+02   -0.12843E-04   -0.80949E-07   528   0.417E-03    0.508E-04
SOL:  13  -0.11730E+00    0.19562E-01   -0.97740E-01    72
DAV:  13    -0.436433665872E+02   -0.11682E-04   -0.50753E-07   512   0.238E-03    0.209E-04
SOL:  14  -0.11728E+00    0.19562E-01   -0.97719E-01    68
DAV:  14    -0.436433702176E+02   -0.36304E-05   -0.11414E-07   528   0.113E-03    0.966E-05
SOL:  15  -0.11728E+00    0.19562E-01   -0.97717E-01    64
DAV:  15    -0.436433710837E+02   -0.86610E-06   -0.45497E-08   504   0.652E-04
SOL:  16  -0.11728E+00    0.19562E-01   -0.97717E-01    58
   1 F= -.43643371E+02 E0= -.43643619E+02  d E =0.744799E-03
