       N       E                     dE             d eps       ncg     rms          rms(c)
DAV:   1     0.697400493995E+02    0.69740E+02   -0.18994E+03    16   0.676E+02
DAV:   2    -0.221623073718E+00   -0.69962E+02   -0.69962E+02    32   0.119E+02
DAV:   3    -0.157947735886E+02   -0.15573E+02   -0.15573E+02    16   0.851E+01
DAV:   4    -0.163256293790E+02   -0.53086E+00   -0.53086E+00    24   0.166E+01
DAV:   5    -0.163263423995E+02   -0.71302E-03   -0.71302E-03    16   0.564E-01    0.803E+00
DAV:   6    -0.144201720364E+02    0.19062E+01   -0.97816E+00    24   0.224E+01    0.327E+00
DAV:   7    -0.143062439698E+02    0.11393E+00   -0.41789E-02    32   0.196E+00    0.200E+00
DAV:   8    -0.142123779338E+02    0.93866E-01   -0.76559E-02    24   0.269E+00    0.210E-01
DAV:   9    -0.142163846662E+02   -0.40067E-02   -0.33640E-03    24   0.398E-01    0.102E-01
DAV:  10    -0.142205473323E+02   -0.41627E-02   -0.24967E-03    24   0.424E-01    0.593E-02
DAV:  11    -0.142292272637E+02   -0.86799E-02   -0.38649E-03    16   0.327E-01    0.463E-02
DAV:  12    -0.142311795582E+02   -0.19523E-02   -0.77976E-04    32   0.184E-01    0.237E-02
DAV:  13    -0.142332116224E+02   -0.20321E-02   -0.41379E-04    32   0.105E-01    0.149E-02
DAV:  14    -0.142333277388E+02   -0.11612E-03   -0.32798E-05    32   0.467E-02    0.795E-03
DAV:  15    -0.142336511909E+02   -0.32345E-03   -0.41993E-05    32   0.362E-02    0.383E-03
DAV:  16    -0.142336958625E+02   -0.44672E-04   -0.67444E-06    32   0.170E-02    0.248E-03
DAV:  17    -0.142337128191E+02   -0.16957E-04   -0.14605E-06    16   0.711E-03    0.368E-04
DAV:  18    -0.142337165386E+02   -0.37195E-05   -0.15723E-07    24   0.215E-03    0.166E-04
DAV:  19    -0.142337176995E+02   -0.11609E-05   -0.25090E-08    16   0.831E-04    0.147E-04
DAV:  20    -0.142337179532E+02   -0.25367E-06   -0.10420E-08    16   0.654E-04
   1 F= -.14233718E+02 E0= -.14233718E+02  d E =-.154499E-45
