       N       E                     dE             d eps       ncg     rms          rms(c)
DAV:   1     0.339293440316E+03    0.33929E+03   -0.18772E+04   640   0.136E+03
DAV:   2     0.794301352562E+01   -0.33135E+03   -0.31856E+03   856   0.204E+02
DAV:   3    -0.438706605019E+02   -0.51814E+02   -0.51117E+02   768   0.840E+01
DAV:   4    -0.463977041308E+02   -0.25270E+01   -0.25151E+01   928   0.202E+01
DAV:   5    -0.464574493319E+02   -0.59745E-01   -0.59700E-01   816   0.337E+00    0.669E+00
DAV:   6    -0.435561850837E+02    0.29013E+01   -0.88074E+00   792   0.967E+00    0.216E+00
DAV:   7    -0.435729958833E+02   -0.16811E-01   -0.17648E+00   848   0.415E+00    0.139E+00
DAV:   8    -0.435766166343E+02   -0.36208E-02   -0.17568E-01   888   0.163E+00    0.491E-01
DAV:   9    -0.435623678968E+02    0.14249E-01   -0.55460E-02   880   0.943E-01    0.110E-01
DAV:  10    -0.435620816569E+02    0.28624E-03   -0.75241E-03   784   0.340E-01    0.835E-02
DAV:  11    -0.435608006279E+02    0.12810E-02   -0.21578E-03   792   0.177E-01    0.455E-02
DAV:  12    -0.435611453026E+02   -0.34467E-03   -0.59325E-04   784   0.979E-02    0.319E-02
DAV:  13    -0.435620289338E+02   -0.88363E-03   -0.46878E-04   664   0.978E-02    0.182E-02
DAV:  14    -0.435627059457E+02   -0.67701E-03   -0.12355E-04   544   0.674E-02    0.110E-02
DAV:  15    -0.435629380068E+02   -0.23206E-03   -0.38415E-05   528   0.298E-02    0.682E-03
DAV:  16    -0.435630449524E+02   -0.10695E-03   -0.15287E-05   504   0.223E-02    0.212E-03
DAV:  17    -0.435630722713E+02   -0.27319E-04   -0.67489E-06   528   0.122E-02
   1 F= -.43563072E+02 E0= -.43563316E+02  d E =0.732244E-03
