       N       E                     dE             d eps       ncg     rms          rms(c)
DAV:   1     0.820172826317E+02    0.82017E+02   -0.25343E+03    24   0.635E+02
DAV:   2     0.545250680293E-01   -0.81963E+02   -0.80025E+02    40   0.124E+02
DAV:   3    -0.154867534193E+02   -0.15541E+02   -0.15531E+02    36   0.668E+01
DAV:   4    -0.156491415090E+02   -0.16239E+00   -0.16238E+00    40   0.823E+00
DAV:   5    -0.156492851173E+02   -0.14361E-03   -0.14361E-03    32   0.264E-01    0.640E+00
DAV:   6    -0.149557136595E+02    0.69357E+00   -0.35618E+00    24   0.105E+01    0.324E+00
DAV:   7    -0.148173983791E+02    0.13832E+00   -0.64385E-01    36   0.405E+00    0.163E+00
DAV:   8    -0.147750796323E+02    0.42319E-01   -0.13474E-01    24   0.236E+00    0.391E-01
DAV:   9    -0.147738234976E+02    0.12561E-02   -0.64688E-03    28   0.541E-01    0.969E-02
DAV:  10    -0.147745759499E+02   -0.75245E-03   -0.10994E-03    24   0.194E-01    0.351E-02
DAV:  11    -0.147763099415E+02   -0.17340E-02   -0.54419E-04    24   0.996E-02    0.183E-02
DAV:  12    -0.147770023011E+02   -0.69236E-03   -0.88235E-05    32   0.441E-02    0.124E-02
DAV:  13    -0.147781144543E+02   -0.11122E-02   -0.16494E-04    32   0.440E-02    0.508E-03
DAV:  14    -0.147784553464E+02   -0.34089E-03   -0.18978E-05    24   0.193E-02    0.381E-03
DAV:  15    -0.147786304694E+02   -0.17512E-03   -0.10886E-05    28   0.133E-02    0.138E-03
DAV:  16    -0.147786781952E+02   -0.47726E-04   -0.22023E-06    32   0.609E-03    0.817E-04
DAV:  17    -0.147786895170E+02   -0.11322E-04   -0.45074E-07    32   0.263E-03    0.436E-04
DAV:  18    -0.147786919850E+02   -0.24681E-05   -0.16174E-07    32   0.162E-03    0.172E-04
DAV:  19    -0.147786921679E+02   -0.18289E-06   -0.80811E-09    32   0.422E-04
   1 F= -.14778692E+02 E0= -.14778692E+02  d E =-.463282E-30
