       N       E                     dE             d eps       ncg     rms          rms(c)
SOL:   1  -0.27360E+00    0.31142E-01   -0.24246E+00   109
DAV:   1    -0.145472954643E+02   -0.14547E+02   -0.71115E-01    24   0.482E+00    0.695E-01
SOL:   2  -0.30668E+00    0.30975E-01   -0.27571E+00    98
DAV:   2    -0.145379157014E+02    0.93798E-02   -0.62296E-02    16   0.189E+00    0.262E-01
SOL:   3  -0.33399E+00    0.30876E-01   -0.30312E+00    98
DAV:   3    -0.145393463071E+02   -0.14306E-02   -0.31912E-03    16   0.553E-01    0.164E-01
SOL:   4  -0.39296E+00    0.30684E-01   -0.36228E+00   102
DAV:   4    -0.145416546109E+02   -0.23083E-02   -0.94473E-03    24   0.868E-01    0.520E-02
SOL:   5  -0.41449E+00    0.30614E-01   -0.38388E+00    98
DAV:   5    -0.145426169232E+02   -0.96231E-03   -0.18617E-03    24   0.375E-01    0.282E-02
SOL:   6  -0.44127E+00    0.30577E-01   -0.41070E+00    99
DAV:   6    -0.145434606422E+02   -0.84372E-03   -0.25569E-03    32   0.441E-01    0.155E-02
SOL:   7  -0.44160E+00    0.30666E-01   -0.41093E+00    91
DAV:   7    -0.145449992971E+02   -0.15387E-02   -0.55734E-04    16   0.192E-01    0.105E-02
SOL:   8  -0.44214E+00    0.30684E-01   -0.41145E+00    86
DAV:   8    -0.145455213882E+02   -0.52209E-03   -0.20401E-04    16   0.127E-01    0.541E-03
SOL:   9  -0.44026E+00    0.30654E-01   -0.40961E+00    90
DAV:   9    -0.145457371735E+02   -0.21579E-03   -0.27204E-04    16   0.156E-01    0.676E-03
SOL:  10  -0.43984E+00    0.30649E-01   -0.40919E+00    82
DAV:  10    -0.145457620020E+02   -0.24828E-04   -0.23674E-05    32   0.398E-02    0.423E-03
SOL:  11  -0.43984E+00    0.30644E-01   -0.40920E+00    80
DAV:  11    -0.145457819539E+02   -0.19952E-04   -0.10367E-05    32   0.305E-02    0.867E-04
SOL:  12  -0.44041E+00    0.30646E-01   -0.40977E+00    82
DAV:  12    -0.145458084450E+02   -0.26491E-04   -0.54401E-06    32   0.206E-02    0.132E-03
SOL:  13  -0.44047E+00    0.30648E-01   -0.40982E+00    76
DAV:  13    -0.145458299901E+02   -0.21545E-04   -0.64878E-07    32   0.668E-03    0.469E-04
SOL:  14  -0.44042E+00    0.30649E-01   -0.40977E+00    74
DAV:  14    -0.145458406889E+02   -0.10699E-04   -0.15539E-07    32   0.351E-03    0.100E-04
SOL:  15  -0.44043E+00    0.30649E-01   -0.40978E+00    71
DAV:  15    -0.145458406960E+02   -0.70372E-08   -0.44755E-08    16   0.183E-03
SOL:  16  -0.44044E+00    0.30649E-01   -0.40979E+00    65
   1 F= -.14545841E+02 E0= -.14545841E+02  d E =-.344538E-49
