       N       E                     dE             d eps       ncg     rms          rms(c)
SOL:   1  -0.40285E-01    0.36096E-01   -0.41887E-02   106
DAV:   1    -0.147876960632E+02   -0.14788E+02   -0.44498E-02    32   0.886E-01    0.122E-01
SOL:   2  -0.42594E-01    0.36037E-01   -0.65569E-02    90
DAV:   2    -0.147871362365E+02    0.55983E-03   -0.21731E-03    24   0.244E-01    0.586E-02
SOL:   3  -0.44404E-01    0.35995E-01   -0.84084E-02    90
DAV:   3    -0.147869546788E+02    0.18156E-03   -0.32428E-04    24   0.112E-01    0.342E-02
SOL:   4  -0.47482E-01    0.35937E-01   -0.11546E-01    92
DAV:   4    -0.147865012941E+02    0.45338E-03   -0.16873E-04    24   0.783E-02    0.123E-02
SOL:   5  -0.48283E-01    0.35945E-01   -0.12338E-01    86
DAV:   5    -0.147864661719E+02    0.35122E-04   -0.30578E-05    24   0.304E-02    0.711E-03
SOL:   6  -0.49117E-01    0.35950E-01   -0.13167E-01    86
DAV:   6    -0.147864265215E+02    0.39650E-04   -0.16257E-05    32   0.235E-02    0.286E-03
SOL:   7  -0.49202E-01    0.35953E-01   -0.13249E-01    74
DAV:   7    -0.147864742531E+02   -0.47732E-04   -0.23956E-06    32   0.108E-02    0.185E-03
SOL:   8  -0.49411E-01    0.35969E-01   -0.13442E-01    79
DAV:   8    -0.147866038528E+02   -0.12960E-03   -0.14538E-05    32   0.280E-02    0.103E-03
SOL:   9  -0.49384E-01    0.35968E-01   -0.13416E-01    74
DAV:   9    -0.147866282159E+02   -0.24363E-04   -0.70285E-07    24   0.575E-03    0.544E-04
SOL:  10  -0.49370E-01    0.35966E-01   -0.13404E-01    73
DAV:  10    -0.147866458513E+02   -0.17635E-04   -0.13877E-06    24   0.692E-03    0.337E-04
SOL:  11  -0.49361E-01    0.35964E-01   -0.13397E-01    71
DAV:  11    -0.147866366463E+02    0.92050E-05   -0.53655E-07    24   0.536E-03    0.375E-04
SOL:  12  -0.49380E-01    0.35964E-01   -0.13416E-01    69
DAV:  12    -0.147866341141E+02    0.25322E-05   -0.19092E-08    32   0.848E-04    0.149E-04
SOL:  13  -0.49378E-01    0.35964E-01   -0.13414E-01    63
DAV:  13    -0.147866340056E+02    0.10858E-06   -0.36499E-08    32   0.115E-03
SOL:  14  -0.49376E-01    0.35964E-01   -0.13413E-01    57
   1 F= -.14786634E+02 E0= -.14786634E+02  d E =-.134999E-47
